<?xml version="1.0"?>
<VTKFile type="UnstructuredGrid" version="0.1" byte_order="LittleEndian">
  <UnstructuredGrid>
    <Piece NumberOfPoints="4" NumberOfCells="1">
      <Points>
        <DataArray type="Float64" NumberOfComponents="3" format="ascii">
          0 0 0  1 0 0  0 1 0  0 0 -1
        </DataArray>
      </Points>
      <Cells>
        <DataArray type="Int32" Name="connectivity" format="ascii">0 1 2 3</DataArray>
        <DataArray type="Int32" Name="offsets" format="ascii">4</DataArray>
        <DataArray type="UInt8" Name="types" format="ascii">10</DataArray>
      </Cells>
      <CellData Scalars="mat_id">
        <DataArray type="Int32" Name="mat_id" format="ascii">1</DataArray>
        <DataArray type="Float64" Name="c" format="ascii">12</DataArray>
        <DataArray type="Float64" Name="phi" format="ascii">28</DataArray>
        <DataArray type="Float64" Name="E" format="ascii">25</DataArray>
      </CellData>
      <PointData>
        <DataArray type="Float64" Name="gamma" format="ascii">18 18 18 18</DataArray>
      </PointData>
    </Piece>
  </UnstructuredGrid>
</VTKFile>
